! Sonnet Data File
! From: emclient Version : 16.52
! From Project: Rectangle
! Data is De-embedded 
! Data File Written: 06/30/2016 10:37:33
!< HDATE 6/30/2016 10:35:52
!< MDATE 6/30/2016 10:35:52
# GHZ Y RI R 1.0
0.100000000000000 -4.06877953e-12 -8.825998258e-7 -9.60640395e-13 -2.082674575e-7 -9.63444309e-13 -2.082674581e-7 1.3754007020e-9 2.9728677342e-4
!< P1 F=0.1 Eeff=(6.41349619 -2.9771e-5) Z0=(168.740887 3.8024e-4) R=3.88522908 C=0.00188943 
!< P2 F=0.1 Eeff=(7.54923561 -3.7734e-5) Z0=(120.607385 2.68977e-4) R=1.10360261 C=0.00719519 
